MODEL 1
REMARK VINA RESULT:     -11.7      0.000      0.000
REMARK  6 active torsions:
REMARK  status: ('A' for Active; 'I' for Inactive)
REMARK       I    between atoms: N1_1  and  C7_6 
REMARK    1  A    between atoms: C5_4  and  C1_17 
REMARK    2  A    between atoms: C7_6  and  C13_9 
REMARK    3  A    between atoms: C8_7  and  C11_18 
REMARK    4  A    between atoms: C10_8  and  N4_30 
REMARK    5  A    between atoms: C20_12  and  C18_22 
REMARK       I    between atoms: C20_12  and  N5_31 
REMARK    6  A    between atoms: C22_14  and  N5_31 
ROOT
HETATM    1  N1  XQQ A 801      20.057  -2.819  -3.819  1.00 18.72    -0.340 N 
HETATM    2  C4  XQQ A 801      21.179  -2.316  -3.008  1.00 20.20     0.127 C 
HETATM    3  C7  XQQ A 801      20.232  -3.507  -4.963  1.00 24.24     0.220 C 
HETATM    4  C1  XQQ A 801      18.756  -2.515  -3.191  1.00 15.19     0.157 C 
HETATM    5  C2  XQQ A 801      19.191  -2.091  -1.778  1.00 19.52     0.035 C 
HETATM    6  C3  XQQ A 801      20.496  -1.392  -2.028  1.00 22.26     0.022 C 
HETATM    7  O1  XQQ A 801      21.372  -3.806  -5.295  1.00 23.70    -0.273 OA
ENDROOT
BRANCH   3   8
HETATM    8  C13 XQQ A 801      19.172  -3.894  -5.700  1.00 27.35     0.107 C 
HETATM    9  C19 XQQ A 801      19.034  -3.624  -6.983  1.00 34.06    -0.006 C 
HETATM   10  C21 XQQ A 801      17.772  -3.798  -7.768  1.00 21.20     0.011 C 
ENDBRANCH   3   8
BRANCH   4  11
HETATM   11  C5  XQQ A 801      17.949  -1.495  -3.934  1.00 15.18     0.135 A 
HETATM   12  N2  XQQ A 801      18.281  -1.003  -5.161  1.00 13.81    -0.230 NA
HETATM   13  C8  XQQ A 801      17.279  -0.087  -5.496  1.00 12.92     0.100 A 
HETATM   14  C6  XQQ A 801      16.313  -0.045  -4.479  1.00 10.95     0.116 A 
HETATM   15  C10 XQQ A 801      15.106   0.681  -4.309  1.00 10.48     0.150 A 
HETATM   16  N7  XQQ A 801      16.749  -0.938  -3.505  1.00 15.64    -0.302 N 
HETATM   17  N3  XQQ A 801      14.387   0.496  -3.172  1.00 16.23    -0.240 NA
HETATM   18  C12 XQQ A 801      14.819  -0.360  -2.246  1.00 13.13     0.136 A 
HETATM   19  C9  XQQ A 801      15.976  -1.086  -2.364  1.00 11.84     0.118 A 
BRANCH  13  20
HETATM   20  C11 XQQ A 801      17.321   0.636  -6.786  1.00 15.19    -0.005 A 
HETATM   21  C15 XQQ A 801      16.906   0.022  -7.963  1.00 12.78     0.015 A 
HETATM   22  C17 XQQ A 801      16.951   0.695  -9.163  1.00 11.56     0.018 A 
HETATM   23  C18 XQQ A 801      17.398   2.010  -9.226  1.00 17.44     0.032 A 
HETATM   24  C16 XQQ A 801      17.817   2.621  -8.049  1.00 15.86     0.018 A 
HETATM   25  C14 XQQ A 801      17.767   1.951  -6.848  1.00 13.72     0.015 A 
BRANCH  23  26
HETATM   26  C20 XQQ A 801      17.442   2.717 -10.542  1.00 15.43     0.257 C 
HETATM   27  N5  XQQ A 801      16.609   2.231 -11.508  1.00 11.25    -0.307 N 
HETATM   28  H3  XQQ A 801      16.068   1.577 -11.271  1.00 13.52     0.170 HD
HETATM   29  O2  XQQ A 801      18.163   3.696 -10.701  1.00 15.17    -0.267 OA
BRANCH  27  30
HETATM   30  C22 XQQ A 801      16.501   2.641 -12.847  1.00 11.27     0.129 A 
HETATM   31  C23 XQQ A 801      17.305   3.612 -13.443  1.00 15.29     0.050 A 
HETATM   32  C24 XQQ A 801      17.087   3.911 -14.766  1.00 15.97     0.005 A 
HETATM   33  C26 XQQ A 801      16.095   3.254 -15.462  1.00 12.34     0.019 A 
HETATM   34  C25 XQQ A 801      15.352   2.312 -14.798  1.00 14.04     0.119 A 
HETATM   35  N6  XQQ A 801      15.534   1.992 -13.506  1.00 14.03    -0.243 NA
ENDBRANCH  27  30
ENDBRANCH  23  26
ENDBRANCH  13  20
BRANCH  15  36
HETATM   36  N4  XQQ A 801      14.634   1.542  -5.203  1.00 16.82    -0.382 N 
HETATM   37  H1  XQQ A 801      13.843   1.894  -5.094  1.00 20.19     0.157 HD
HETATM   38  H2  XQQ A 801      15.113   1.756  -5.900  1.00 20.19     0.157 HD
ENDBRANCH  15  36
ENDBRANCH   4  11
TORSDOF 6
ENDMDL
MODEL 2
REMARK VINA RESULT:      -9.9      1.970      3.909
REMARK  6 active torsions:
REMARK  status: ('A' for Active; 'I' for Inactive)
REMARK       I    between atoms: N1_1  and  C7_6 
REMARK    1  A    between atoms: C5_4  and  C1_17 
REMARK    2  A    between atoms: C7_6  and  C13_9 
REMARK    3  A    between atoms: C8_7  and  C11_18 
REMARK    4  A    between atoms: C10_8  and  N4_30 
REMARK    5  A    between atoms: C20_12  and  C18_22 
REMARK       I    between atoms: C20_12  and  N5_31 
REMARK    6  A    between atoms: C22_14  and  N5_31 
ROOT
HETATM    1  N1  XQQ A 801      17.581  -2.044  -1.638  1.00 18.72    -0.340 N 
HETATM    2  C4  XQQ A 801      17.929  -3.283  -0.920  1.00 20.20     0.127 C 
HETATM    3  C7  XQQ A 801      16.336  -1.532  -1.652  1.00 24.24     0.220 C 
HETATM    4  C1  XQQ A 801      18.765  -1.436  -2.275  1.00 15.19     0.157 C 
HETATM    5  C2  XQQ A 801      19.907  -2.218  -1.605  1.00 19.52     0.035 C 
HETATM    6  C3  XQQ A 801      19.316  -3.587  -1.433  1.00 22.26     0.022 C 
HETATM    7  O1  XQQ A 801      15.476  -2.070  -0.965  1.00 23.70    -0.273 OA
ENDROOT
BRANCH   3   8
HETATM    8  C13 XQQ A 801      16.055  -0.429  -2.373  1.00 27.35     0.107 C 
HETATM    9  C19 XQQ A 801      14.955  -0.277  -3.083  1.00 34.06    -0.006 C 
HETATM   10  C21 XQQ A 801      14.726   0.801  -4.096  1.00 21.20     0.011 C 
ENDBRANCH   3   8
BRANCH   4  11
HETATM   11  C5  XQQ A 801      18.748  -1.504  -3.771  1.00 15.18     0.135 A 
HETATM   12  N2  XQQ A 801      18.141  -0.585  -4.573  1.00 13.81    -0.230 NA
HETATM   13  C8  XQQ A 801      18.356  -1.012  -5.887  1.00 12.92     0.100 A 
HETATM   14  C6  XQQ A 801      19.129  -2.183  -5.886  1.00 10.95     0.116 A 
HETATM   15  C10 XQQ A 801      19.642  -3.014  -6.915  1.00 10.48     0.150 A 
HETATM   16  N7  XQQ A 801      19.368  -2.478  -4.547  1.00 15.64    -0.302 N 
HETATM   17  N3  XQQ A 801      20.363  -4.111  -6.570  1.00 16.23    -0.240 NA
HETATM   18  C12 XQQ A 801      20.581  -4.384  -5.283  1.00 13.13     0.136 A 
HETATM   19  C9  XQQ A 801      20.110  -3.612  -4.253  1.00 11.84     0.118 A 
BRANCH  13  20
HETATM   20  C11 XQQ A 801      17.834  -0.228  -7.027  1.00 15.19    -0.005 A 
HETATM   21  C15 XQQ A 801      17.074  -0.834  -8.022  1.00 12.78     0.015 A 
HETATM   22  C17 XQQ A 801      16.594  -0.103  -9.085  1.00 11.56     0.018 A 
HETATM   23  C18 XQQ A 801      16.844   1.261  -9.183  1.00 17.44     0.032 A 
HETATM   24  C16 XQQ A 801      17.607   1.865  -8.190  1.00 15.86     0.018 A 
HETATM   25  C14 XQQ A 801      18.082   1.136  -7.123  1.00 13.72     0.015 A 
BRANCH  23  26
HETATM   26  C20 XQQ A 801      16.315   2.031 -10.351  1.00 15.43     0.257 C 
HETATM   27  N5  XQQ A 801      17.030   1.926 -11.508  1.00 11.25    -0.307 N 
HETATM   28  H3  XQQ A 801      17.715   1.371 -11.501  1.00 13.52     0.170 HD
HETATM   29  O2  XQQ A 801      15.276   2.675 -10.254  1.00 15.17    -0.267 OA
BRANCH  27  30
HETATM   30  C22 XQQ A 801      16.817   2.595 -12.724  1.00 11.27     0.129 A 
HETATM   31  C23 XQQ A 801      17.519   3.728 -13.135  1.00 15.29     0.050 A 
HETATM   32  C24 XQQ A 801      17.204   4.277 -14.355  1.00 15.97     0.005 A 
HETATM   33  C26 XQQ A 801      16.219   3.705 -15.131  1.00 12.34     0.019 A 
HETATM   34  C25 XQQ A 801      15.580   2.591 -14.649  1.00 14.04     0.119 A 
HETATM   35  N6  XQQ A 801      15.859   2.025 -13.463  1.00 14.03    -0.243 NA
ENDBRANCH  27  30
ENDBRANCH  23  26
ENDBRANCH  13  20
BRANCH  15  36
HETATM   36  N4  XQQ A 801      19.454  -2.783  -8.209  1.00 16.82    -0.382 N 
HETATM   37  H1  XQQ A 801      19.299  -1.972  -8.489  1.00 20.19     0.157 HD
HETATM   38  H2  XQQ A 801      19.484  -3.443  -8.779  1.00 20.19     0.157 HD
ENDBRANCH  15  36
ENDBRANCH   4  11
TORSDOF 6
ENDMDL
