REMARK  6 active torsions:
REMARK  status: ('A' for Active; 'I' for Inactive)
REMARK       I    between atoms: N1_1  and  C7_6 
REMARK    1  A    between atoms: C5_4  and  C1_17 
REMARK    2  A    between atoms: C7_6  and  C13_9 
REMARK    3  A    between atoms: C8_7  and  C11_18 
REMARK    4  A    between atoms: C10_8  and  N4_30 
REMARK    5  A    between atoms: C20_12  and  C18_22 
REMARK       I    between atoms: C20_12  and  N5_31 
REMARK    6  A    between atoms: C22_14  and  N5_31 
ROOT
HETATM    1  N1  XQQ A 801      19.709  -3.324  -3.982  1.00 18.72    -0.340 N 
HETATM    2  C4  XQQ A 801      21.064  -2.962  -3.532  1.00 20.20     0.127 C 
HETATM    3  C7  XQQ A 801      19.479  -4.189  -4.988  1.00 24.24     0.220 C 
HETATM    4  C1  XQQ A 801      18.672  -2.664  -3.165  1.00 15.19     0.157 C 
HETATM    5  C2  XQQ A 801      19.503  -2.146  -1.979  1.00 19.52     0.035 C 
HETATM    6  C3  XQQ A 801      20.810  -1.784  -2.622  1.00 22.26     0.022 C 
HETATM    7  O1  XQQ A 801      20.435  -4.768  -5.489  1.00 23.70    -0.273 OA
ENDROOT
BRANCH   3   8
HETATM    8  C13 XQQ A 801      18.222  -4.442  -5.402  1.00 27.35     0.107 C 
HETATM    9  C19 XQQ A 801      17.860  -5.554  -6.010  1.00 34.06    -0.006 C 
HETATM   10  C21 XQQ A 801      16.557  -5.765  -6.715  1.00 21.20     0.011 C 
ENDBRANCH   3   8
BRANCH   4  11
HETATM   11  C5  XQQ A 801      17.901  -1.612  -3.901  1.00 15.18     0.135 A 
HETATM   12  N2  XQQ A 801      18.237  -1.138  -5.133  1.00 13.81    -0.230 NA
HETATM   13  C8  XQQ A 801      17.272  -0.180  -5.458  1.00 12.92     0.100 A 
HETATM   14  C6  XQQ A 801      16.322  -0.093  -4.429  1.00 10.95     0.116 A 
HETATM   15  C10 XQQ A 801      15.150   0.685  -4.246  1.00 10.48     0.150 A 
HETATM   16  N7  XQQ A 801      16.732  -1.002  -3.458  1.00 15.64    -0.302 N 
HETATM   17  N3  XQQ A 801      14.439   0.535  -3.099  1.00 16.23    -0.240 NA
HETATM   18  C12 XQQ A 801      14.846  -0.337  -2.175  1.00 13.13     0.136 A 
HETATM   19  C9  XQQ A 801      15.968  -1.113  -2.306  1.00 11.84     0.118 A 
BRANCH  13  20
HETATM   20  C11 XQQ A 801      17.328   0.536  -6.751  1.00 15.19    -0.005 A 
HETATM   21  C15 XQQ A 801      17.533   1.911  -6.799  1.00 12.78     0.015 A 
HETATM   22  C17 XQQ A 801      17.579   2.575  -8.004  1.00 11.56     0.018 A 
HETATM   23  C18 XQQ A 801      17.437   1.886  -9.203  1.00 17.44     0.032 A 
HETATM   24  C16 XQQ A 801      17.228   0.512  -9.154  1.00 15.86     0.018 A 
HETATM   25  C14 XQQ A 801      17.188  -0.154  -7.950  1.00 13.72     0.015 A 
BRANCH  23  26
HETATM   26  C20 XQQ A 801      17.486   2.632 -10.498  1.00 15.43     0.257 C 
HETATM   27  N5  XQQ A 801      16.752   2.102 -11.520  1.00 11.25    -0.307 N 
HETATM   28  H3  XQQ A 801      16.261   1.396 -11.329  1.00 13.52     0.170 HD
HETATM   29  O2  XQQ A 801      18.122   3.676 -10.593  1.00 15.17    -0.267 OA
BRANCH  27  30
HETATM   30  C22 XQQ A 801      16.678   2.539 -12.852  1.00 11.27     0.129 A 
HETATM   31  C23 XQQ A 801      17.439   3.580 -13.385  1.00 15.29     0.050 A 
HETATM   32  C24 XQQ A 801      17.262   3.898 -14.710  1.00 15.97     0.005 A 
HETATM   33  C26 XQQ A 801      16.353   3.193 -15.469  1.00 12.34     0.019 A 
HETATM   34  C25 XQQ A 801      15.648   2.184 -14.864  1.00 14.04     0.119 A 
HETATM   35  N6  XQQ A 801      15.792   1.843 -13.573  1.00 14.03    -0.243 NA
ENDBRANCH  27  30
ENDBRANCH  23  26
ENDBRANCH  13  20
BRANCH  15  36
HETATM   36  N4  XQQ A 801      14.704   1.563  -5.136  1.00 16.82    -0.382 N 
HETATM   37  H1  XQQ A 801      15.137   1.685  -5.883  1.00 20.19     0.157 HD
HETATM   38  H2  XQQ A 801      13.978   2.019  -4.974  1.00 20.19     0.157 HD
ENDBRANCH  15  36
ENDBRANCH   4  11
TORSDOF 6
